<?xml version="1.0"?>
<VTKFile type="UnstructuredGrid"  version="0.1"  >
<UnstructuredGrid>
<Piece  NumberOfPoints="13689" NumberOfCells="26912">
<Points>
<DataArray  type="Float64"  NumberOfComponents="3"  format="ascii">-0.005600000000000001 -0.00512 0  -0.004900000000000001 -0.00512 0  -0.004200000000000001 -0.00512 0  -0.003500000000000001 -0.00512 0  -0.002800000000000001 -0.00512 0  -0.002100000000000001 -0.00512 0  -0.001400000000000001 -0.00512 0  -0.000700000000000001 -0.00512 0  -8.673617379884035e-19 -0.00512 0  0.0006999999999999984 -0.00512 0  0.001399999999999998 -0.00512 0  0.002099999999999999 -0.00512 0  0.002799999999999999 -0.00512 0  0.003499999999999998 -0.00512 0  0.004199999999999999 -0.00512 0  0.004899999999999998 -0.00512 0  0.005599999999999999 -0.00512 0  0.006299999999999998 -0.00512 0  0.006999999999999998 -0.00512 0  0.007699999999999999 -0.00512 0  0.008399999999999998 -0.00512 0  0.009099999999999997 -0.00512 0  0.0098 -0.00512 0  0.0105 -0.00512 0  0.0112 -0.00512 0  0.0119 -0.00512 0  0.0126 -0.00512 0  0.0133 -0.00512 0  0.014 -0.00512 0  0.0147 -0.00512 0  0.0154 -0.00512 0  0.0161 -0.00512 0  0.0168 -0.00512 0  0.0175 -0.00512 0  0.0182 -0.00512 0  0.0189 -0.00512 0  0.0196 -0.00512 0  0.0203 -0.00512 0  0.021 -0.00512 0  0.0217 -0.00512 0  0.0224 -0.00512 0  0.0231 -0.00512 0  0.02379999999999999 -0.00512 0  0.02449999999999999 -0.00512 0  0.0252 -0.00512 0  0.0259 -0.00512 0  0.0266 -0.00512 0  0.0273 -0.00512 0  0.028 -0.00512 0  0.0287 -0.00512 0  0.0294 -0.00512 0  0.03009999999999999 -0.00512 0  0.03079999999999999 -0.00512 0  0.03149999999999999 -0.00512 0  0.03219999999999999 -0.00512 0  0.03289999999999999 -0.00512 0  0.0336 -0.00512 0  0.0343 -0.00512 0  0.035 -0.00512 0  0.0357 -0.00512 0  0.03639999999999999 -0.00512 0  0.0371 -0.00512 0  0.0378 -0.00512 0  0.0385 -0.00512 0  0.0392 -0.00512 0  0.0399 -0.00512 0  0.0406 -0.00512 0  0.0413 -0.00512 0  0.042 -0.00512 0  0.04269999999999999 -0.00512 0  0.04339999999999999 -0.00512 0  0.04409999999999999 -0.00512 0  0.04479999999999999 -0.00512 0  0.0455 -0.00512 0  0.0462 -0.00512 0  0.0469 -0.00512 0  0.0476 -0.00512 0  0.0483 -0.00512 0  0.04899999999999999 -0.00512 0  0.04969999999999999 -0.00512 0  0.05039999999999999 -0.00512 0  0.05109999999999999 -0.00512 0  0.05179999999999999 -0.00512 0  0.05249999999999999 -0.00512 0  0.05319999999999999 -0.00512 0  0.05389999999999999 -0.00512 0  0.05459999999999999 -0.00512 0  0.05529999999999999 -0.00512 0  0.056 -0.00512 0  0.0567 -0.00512 0  0.0574 -0.00512 0  0.05809999999999999 -0.00512 0  0.0588 -0.00512 0  0.05949999999999999 -0.00512 0  0.0602 -0.00512 0  0.06089999999999999 -0.00512 0  0.0616 -0.00512 0  0.06229999999999999 -0.00512 0  0.063 -0.00512 0  0.06370000000000001 -0.00512 0  0.06439999999999999 -0.00512 0  0.06509999999999999 -0.00512 0  0.0658 -0.00512 0  0.0665 -0.00512 0  0.06719999999999998 -0.00512 0  0.06789999999999999 -0.00512 0  0.06859999999999999 -0.00512 0  0.0693 -0.00512 0  0.06999999999999998 -0.00512 0  0.07069999999999999 -0.00512 0  0.07139999999999999 -0.00512 0  0.0721 -0.00512 0  0.0728 -0.00512 0  0.07349999999999998 -0.00512 0  0.07419999999999999 -0.00512 0  0.07489999999999999 -0.00512 0  0.0756 -0.00512 0  -0.005600000000000001 -0.00448 0  -0.004900000000000001 -0.00448 0  -0.004200000000000001 -0.00448 0  -0.003500000000000001 -0.00448 0  -0.002800000000000001 -0.00448 0  -0.002100000000000001 -0.00448 0  -0.001400000000000001 -0.00448 0  -0.000700000000000001 -0.00448 0  -8.673617379884035e-19 -0.00448 0  0.0006999999999999984 -0.00448 0  0.001399999999999998 -0.00448 0  0.002099999999999999 -0.00448 0  0.002799999999999999 -0.00448 0  0.003499999999999998 -0.00448 0  0.004199999999999999 -0.00448 0  0.004899999999999998 -0.00448 0  0.005599999999999999 -0.00448 0  0.006299999999999998 -0.00448 0  0.006999999999999998 -0.00448 0  0.007699999999999999 -0.00448 0  0.008399999999999998 -0.00448 0  0.009099999999999997 -0.00448 0  0.0098 -0.00448 0  0.0105 -0.00448 0  0.0112 -0.00448 0  0.0119 -0.00448 0  0.0126 -0.00448 0  0.0133 -0.00448 0  0.014 -0.00448 0  0.0147 -0.00448 0  0.0154 -0.00448 0  0.0161 -0.00448 0  0.0168 -0.00448 0  0.0175 -0.00448 0  0.0182 -0.00448 0  0.0189 -0.00448 0  0.0196 -0.00448 0  0.0203 -0.00448 0  0.021 -0.00448 0  0.0217 -0.00448 0  0.0224 -0.00448 0  0.0231 -0.00448 0  0.02379999999999999 -0.00448 0  0.02449999999999999 -0.00448 0  0.0252 -0.00448 0  0.0259 -0.00448 0  0.0266 -0.00448 0  0.0273 -0.00448 0  0.028 -0.00448 0  0.0287 -0.00448 0  0.0294 -0.00448 0  0.03009999999999999 -0.00448 0  0.03079999999999999 -0.00448 0  0.03149999999999999 -0.00448 0  0.03219999999999999 -0.00448 0  0.03289999999999999 -0.00448 0  0.0336 -0.00448 0  0.0343 -0.00448 0  0.035 -0.00448 0  0.0357 -0.00448 0  0.03639999999999999 -0.00448 0  0.0371 -0.00448 0  0.0378 -0.00448 0  0.0385 -0.00448 0  0.0392 -0.00448 0  0.0399 -0.00448 0  0.0406 -0.00448 0  0.0413 -0.00448 0  0.042 -0.00448 0  0.04269999999999999 -0.00448 0  0.04339999999999999 -0.00448 0  0.04409999999999999 -0.00448 0  0.04479999999999999 -0.00448 0  0.0455 -0.00448 0  0.0462 -0.00448 0  0.0469 -0.00448 0  0.0476 -0.00448 0  0.0483 -0.00448 0  0.04899999999999999 -0.00448 0  0.04969999999999999 -0.00448 0  0.05039999999999999 -0.00448 0  0.05109999999999999 -0.00448 0  0.05179999999999999 -0.00448 0  0.05249999999999999 -0.00448 0  0.05319999999999999 -0.00448 0  0.05389999999999999 -0.00448 0  0.05459999999999999 -0.00448 0  0.05529999999999999 -0.00448 0  0.056 -0.00448 0  0.0567 -0.00448 0  0.0574 -0.00448 0  0.05809999999999999 -0.00448 0  0.0588 -0.00448 0  0.05949999999999999 -0.00448 0  0.0602 -0.00448 0  0.06089999999999999 -0.00448 0  0.0616 -0.00448 0  0.06229999999999999 -0.00448 0  0.063 -0.00448 0  0.06370000000000001 -0.00448 0  0.06439999999999999 -0.00448 0  0.06509999999999999 -0.00448 0  0.0658 -0.00448 0  0.0665 -0.00448 0  0.06719999999999998 -0.00448 0  0.06789999999999999 -0.00448 0  0.06859999999999999 -0.00448 0  0.0693 -0.00448 0  0.06999999999999998 -0.00448 0  0.07069999999999999 -0.00448 0  0.07139999999999999 -0.00448 0  0.0721 -0.00448 0  0.0728 -0.00448 0  0.07349999999999998 -0.00448 0  0.07419999999999999 -0.00448 0  0.07489999999999999 -0.00448 0  0.0756 -0.00448 0  -0.005600000000000001 -0.003840000000000001 0  -0.004900000000000001 -0.003840000000000001 0  -0.004200000000000001 -0.003840000000000001 0  -0.003500000000000001 -0.003840000000000001 0  -0.002800000000000001 -0.003840000000000001 0  -0.002100000000000001 -0.003840000000000001 0  -0.001400000000000001 -0.003840000000000001 0  -0.000700000000000001 -0.003840000000000001 0  -8.673617379884035e-19 -0.003840000000000001 0  0.0006999999999999984 -0.003840000000000001 0  0.001399999999999998 -0.003840000000000001 0  0.002099999999999999 -0.003840000000000001 0  0.002799999999999999 -0.003840000000000001 0  0.003499999999999998 -0.003840000000000001 0  0.004199999999999999 -0.003840000000000001 0  0.004899999999999998 -0.003840000000000001 0  0.005599999999999999 -0.003840000000000001 0  0.006299999999999998 -0.003840000000000001 0  0.006999999999999998 -0.003840000000000001 0  0.007699999999999999 -0.003840000000000001 0  0.008399999999999998 -0.003840000000000001 0  0.009099999999999997 -0.003840000000000001 0  0.0098 -0.003840000000000001 0  0.0105 -0.003840000000000001 0  0.0112 -0.003840000000000001 0  0.0119 -0.003840000000000001 0  0.0126 -0.003840000000000001 0  0.0133 -0.003840000000000001 0  0.014 -0.003840000000000001 0  0.0147 -0.003840000000000001 0  0.0154 -0.003840000000000001 0  0.0161 -0.003840000000000001 0  0.0168 -0.003840000000000001 0  0.0175 -0.003840000000000001 0  0.0182 -0.003840000000000001 0  0.0189 -0.003840000000000001 0  0.0196 -0.003840000000000001 0  0.0203 -0.003840000000000001 0  0.021 -0.003840000000000001 0  0.0217 -0.003840000000000001 0  0.0224 -0.003840000000000001 0  0.0231 -0.003840000000000001 0  0.02379999999999999 -0.003840000000000001 0  0.02449999999999999 -0.003840000000000001 0  0.0252 -0.003840000000000001 0  0.0259 -0.003840000000000001 0  0.0266 -0.003840000000000001 0  0.0273 -0.003840000000000001 0  0.028 -0.003840000000000001 0  0.0287 -0.003840000000000001 0  0.0294 -0.003840000000000001 0  0.03009999999999999 -0.003840000000000001 0  0.03079999999999999 -0.003840000000000001 0  0.03149999999999999 -0.003840000000000001 0  0.03219999999999999 -0.003840000000000001 0  0.03289999999999999 -0.003840000000000001 0  0.0336 -0.003840000000000001 0  0.0343 -0.003840000000000001 0  0.035 -0.003840000000000001 0  0.0357 -0.003840000000000001 0  0.03639999999999999 -0.003840000000000001 0  0.0371 -0.003840000000000001 0  0.0378 -0.003840000000000001 0  0.0385 -0.003840000000000001 0  0.0392 -0.003840000000000001 0  0.0399 -0.003840000000000001 0  0.0406 -0.003840000000000001 0  0.0413 -0.003840000000000001 0  0.042 -0.003840000000000001 0  0.04269999999999999 -0.003840000000000001 0  0.04339999999999999 -0.003840000000000001 0  0.04409999999999999 -0.003840000000000001 0  0.04479999999999999 -0.003840000000000001 0  0.0455 -0.003840000000000001 0  0.0462 -0.003840000000000001 0  0.0469 -0.003840000000000001 0  0.0476 -0.003840000000000001 0  0.0483 -0.003840000000000001 0  0.04899999999999999 -0.003840000000000001 0  0.04969999999999999 -0.003840000000000001 0  0.05039999999999999 -0.003840000000000001 0  0.05109999999999999 -0.003840000000000001 0  0.05179999999999999 -0.003840000000000001 0  0.05249999999999999 -0.003840000000000001 0  0.05319999999999999 -0.003840000000000001 0  0.05389999999999999 -0.003840000000000001 0  0.05459999999999999 -0.003840000000000001 0  0.05529999999999999 -0.003840000000000001 0  0.056 -0.003840000000000001 0  0.0567 -0.003840000000000001 0  0.0574 -0.003840000000000001 0  0.05809999999999999 -0.003840000000000001 0  0.0588 -0.003840000000000001 0  0.05949999999999999 -0.003840000000000001 0  0.0602 -0.003840000000000001 0  0.06089999999999999 -0.003840000000000001 0  0.0616 -0.
[...]
<CellData  Scalars="f_60"> 
<DataArray  type="Float64"  Name="f_60"  format="ascii">0.0000000000000000e+00   0.0000000000000000e+00   0.0000000000000000e+00   0.0000000000000000e+00   0.0000000000000000e+00   0.0000000000000000e+00   0.0000000000000000e+00   0.0000000000000000e+00   0.0000000000000000e+00   0.0000000000000000e+00   0.0000000000000000e+00   0.0000000000000000e+00   0.0000000000000000e+00   0.0000000000000000e+00   0.0000000000000000e+00   0.0000000000000000e+00   0.0000000000000000e+00   0.0000000000000000e+00   0.0000000000000000e+00   0.0000000000000000e+00   0.0000000000000000e+00   0.0000000000000000e+00   0.0000000000000000e+00   0.0000000000000000e+00   0.0000000000000000e+00   0.0000000000000000e+00   0.0000000000000000e+00   0.0000000000000000e+00   0.0000000000000000e+00   0.0000000000000000e+00   0.0000000000000000e+00   0.0000000000000000e+00   0.0000000000000000e+00   0.0000000000000000e+00   0.0000000000000000e+00   0.0000000000000000e+00   0.0000000000000000e+00   0.0000000000000000e+00   0.0000000000000000e+00   0.0000000000000000e+00   0.0000000000000000e+00   0.0000000000000000e+00   0.0000000000000000e+00   0.0000000000000000e+00   0.0000000000000000e+00   0.0000000000000000e+00   0.0000000000000000e+00   0.0000000000000000e+00   0.0000000000000000e+00   0.0000000000000000e+00   0.0000000000000000e+00   0.0000000000000000e+00   0.0000000000000000e+00   0.0000000000000000e+00   0.0000000000000000e+00   0.0000000000000000e+00   0.0000000000000000e+00   0.0000000000000000e+00   0.0000000000000000e+00   0.0000000000000000e+00   0.0000000000000000e+00   0.0000000000000000e+00   0.0000000000000000e+00   0.0000000000000000e+00   0.0000000000000000e+00   0.0000000000000000e+00   0.0000000000000000e+00   0.0000000000000000e+00   0.0000000000000000e+00   0.0000000000000000e+00   0.0000000000000000e+00   0.0000000000000000e+00   0.0000000000000000e+00   0.0000000000000000e+00   0.0000000000000000e+00   0.0000000000000000e+00   0.0000000000000000e+00   0.0000000000000000e+00   0.0000000000000000e+00   0.0000000000000000e+00   0.0000000000000000e+00   0.0000000000000000e+00   0.0000000000000000e+00   0.0000000000000000e+00   0.0000000000000000e+00   0.0000000000000000e+00   0.0000000000000000e+00   0.0000000000000000e+00   0.0000000000000000e+00   0.0000000000000000e+00   0.0000000000000000e+00   0.0000000000000000e+00   0.0000000000000000e+00   0.0000000000000000e+00   0.0000000000000000e+00   0.0000000000000000e+00   0.0000000000000000e+00   0.0000000000000000e+00   0.0000000000000000e+00   0.0000000000000000e+00   0.0000000000000000e+00   0.0000000000000000e+00   0.0000000000000000e+00   0.0000000000000000e+00   0.0000000000000000e+00   0.0000000000000000e+00   0.0000000000000000e+00   0.0000000000000000e+00   0.0000000000000000e+00   0.0000000000000000e+00   0.0000000000000000e+00   0.0000000000000000e+00   0.0000000000000000e+00   0.0000000000000000e+00   0.0000000000000000e+00   0.0000000000000000e+00   0.0000000000000000e+00   0.0000000000000000e+00   0.0000000000000000e+00   0.0000000000000000e+00   0.0000000000000000e+00   0.0000000000000000e+00   0.0000000000000000e+00   0.0000000000000000e+00   0.0000000000000000e+00   0.0000000000000000e+00   0.0000000000000000e+00   0.0000000000000000e+00   0.0000000000000000e+00   0.0000000000000000e+00   0.0000000000000000e+00   0.0000000000000000e+00   0.0000000000000000e+00   0.0000000000000000e+00   0.0000000000000000e+00   0.0000000000000000e+00   0.0000000000000000e+00   0.0000000000000000e+00   0.0000000000000000e+00   0.0000000000000000e+00   0.0000000000000000e+00   0.0000000000000000e+00   0.0000000000000000e+00   0.0000000000000000e+00   0.0000000000000000e+00   0.0000000000000000e+00   0.0000000000000000e+00   0.0000000000000000e+00   0.0000000000000000e+00   0.0000000000000000e+00   0.0000000000000000e+00   0.0000000000000000e+00   0.0000000000000000e+00   0.0000000000000000e+00   0.0000000000000000e+00   0.0000000000000000e+00   0.0000000000000000e+00   0.0000000000000000e+00   0.0000000000000000e+00   0.0000000000000000e+00   0.0000000000000000e+00   0.0000000000000000e+00   0.0000000000000000e+00   0.0000000000000000e+00   0.0000000000000000e+00   0.0000000000000000e+00   0.0000000000000000e+00   0.0000000000000000e+00   0.0000000000000000e+00   0.0000000000000000e+00   0.0000000000000000e+00   0.0000000000000000e+00   0.0000000000000000e+00   0.0000000000000000e+00   0.0000000000000000e+00   0.0000000000000000e+00   0.0000000000000000e+00   0.0000000000000000e+00   0.0000000000000000e+00   0.0000000000000000e+00   0.0000000000000000e+00   0.0000000000000000e+00   0.0000000000000000e+00   0.0000000000000000e+00   0.0000000000000000e+00   0.0000000000000000e+00   0.0000000000000000e+00   0.0000000000000000e+00   0.0000000000000000e+00   0.0000000000000000e+00   0.0000000000000000e+00   0.0000000000000000e+00   0.0000000000000000e+00   0.0000000000000000e+00   0.0000000000000000e+00   0.0000000000000000e+00   0.0000000000000000e+00   0.0000000000000000e+00   0.0000000000000000e+00   0.0000000000000000e+00   0.0000000000000000e+00   0.0000000000000000e+00   0.0000000000000000e+00   0.0000000000000000e+00   0.0000000000000000e+00   0.0000000000000000e+00   0.0000000000000000e+00   0.0000000000000000e+00   0.0000000000000000e+00   0.0000000000000000e+00   0.0000000000000000e+00   0.0000000000000000e+00   0.0000000000000000e+00   0.0000000000000000e+00   0.0000000000000000e+00   0.0000000000000000e+00   0.0000000000000000e+00   0.0000000000000000e+00   0.0000000000000000e+00   0.0000000000000000e+00   0.0000000000000000e+00   0.0000000000000000e+00   0.0000000000000000e+00   0.0000000000000000e+00   0.0000000000000000e+00   0.0000000000000000e+00   0.0000000000000000e+00   0.0000000000000000e+00   0.0000000000000000e+00   0.0000000000000000e+00   0.0000000000000000e+00   0.0000000000000000e+00   0.0000000000000000e+00   0.0000000000000000e+00   0.0000000000000000e+00   0.0000000000000000e+00   0.0000000000000000e+00   0.0000000000000000e+00   0.0000000000000000e+00   0.0000000000000000e+00   0.0000000000000000e+00   0.0000000000000000e+00   0.0000000000000000e+00   0.0000000000000000e+00   0.0000000000000000e+00   0.0000000000000000e+00   0.0000000000000000e+00   0.0000000000000000e+00   0.0000000000000000e+00   0.0000000000000000e+00   0.0000000000000000e+00   0.0000000000000000e+00   0.0000000000000000e+00   0.0000000000000000e+00   0.0000000000000000e+00   0.0000000000000000e+00   0.0000000000000000e+00   0.0000000000000000e+00   0.0000000000000000e+00   0.0000000000000000e+00   0.0000000000000000e+00   0.0000000000000000e+00   0.0000000000000000e+00   0.0000000000000000e+00   0.0000000000000000e+00   0.0000000000000000e+00   0.0000000000000000e+00   0.0000000000000000e+00   0.0000000000000000e+00   0.0000000000000000e+00   0.0000000000000000e+00   0.0000000000000000e+00   0.0000000000000000e+00   0.0000000000000000e+00   0.0000000000000000e+00   0.0000000000000000e+00   0.0000000000000000e+00   0.0000000000000000e+00   0.0000000000000000e+00   0.0000000000000000e+00   0.0000000000000000e+00   0.0000000000000000e+00   0.0000000000000000e+00   0.0000000000000000e+00   0.0000000000000000e+00   0.0000000000000000e+00   0.0000000000000000e+00   0.0000000000000000e+00   0.0000000000000000e+00   0.0000000000000000e+00   0.0000000000000000e+00   0.0000000000000000e+00   0.0000000000000000e+00   0.0000000000000000e+00   0.0000000000000000e+00   0.0000000000000000e+00   0.0000000000000000e+00   0.0000000000000000e+00   0.0000000000000000e+00   0.0000000000000000e+00   0.0000000000000000e+00   0.0000000000000000e+00   0.0000000000000000e+00   0.0000000000000000e+00   0.0000000000000000e+00   0.0000000000000000e+00   0.0000000000000000e+00   0.0000000000000000e+00   0.0000000000000000e+00   0.0000000000000000e+00   0.0000000000000000e+00   0.0000000000000000e+00   0.0000000000000000e+00   0.0000000000000000e+00   0.0000000000000000e+00   0.0000000000000000e+00   0.0000000000000000e+00   0.0000000000000000e+00   0.0000000000000000e+00   0.0000000000000000e+00   0.0000000000000000e+00   0.0000000000000000e+00   0.0000000000000000e+00   0.0000000000000000e+00   0.0000000000000000e+00   0.0000000000000000e+00   0.0000000000000000e+00   0.0000000000000000e+00   0.0000000000000000e+00   0.0000000000000000e+00   0.0000000000000000e+00   0.0000000000000000e+00   0.0000000000000000e+00   0.0000000000000000e+00   0.0000000000000000e+00   0.0000000000000000e+00   0.0000000000000000e+00   0.0000000000000000e+00   0.0000000000000000e+00   0.0000000000000000e+00   0.0000000000000000e+00   0.0000000000000000e+00   0.0000000000000000e+00   0.0000000000000000e+00   0.0000000000000000e+00   0.0000000000000000e+00   0.0000000000000000e+00   0.0000000000000000e+00   0.0000000000000000e+00   0.0000000000000000e+00   0.0000000000000000e+00   0.0000000000000000e+00   0.0000000000000000e+00   0.0000000000000000e+00   0.0000000000000000e+00   0.0000000000000000e+00   0.0000000000000000e+00   0.0000000000000000e+00   0.0000000000000000e+00   0.0000000000000000e+00   0.0000000000000000e+00   0.0000000000000000e+00   0.0000000000000000e+00   0.0000000000000000e+00   0.0000000000000000e+00   0.0000000000000000e+00   0.0000000000000000e+00   0.0000000000000000e+00   0.0000000000000000e+00   0.0000000000000000e+00   0.0000000000000000e+00   0.0000000000000000e+00   0.0000000000000000e+00   0.0000000000000000e+00   0.0000000000000000e+00   0.0000000000000000e+00   0.0000000000000000e+00   0.0000000000000000e+00   0.0000000000000000e+00   0.0000000000000000e+00   0.0000000000000000e+00   0.0000000000000000e+00   0.0000000000000000e+00   0.0000000000000000e+00   0.0000000000000000e+00   0.0000000000000000e+00   0.0000000000000000e+00   0.0000000000000000e+00   0.0000000000000000e+00   0.0000000000000000e+00   0.0000000000000000e+00   0.0000000000000000e+00   0.0000000000000000e+00   0.0000000000000000e+00   0.0000000000000000e+00   0.0000000000000000e+00   0.0000000000000000e+00   0.0000000000000000e+00   0.0000000000000000e+00   0.0000000000000000e+00   0.0000000000000000e+00   0.0000000000000000e+00   0.0000000000000000e+00   0.0000000000000000e+00   0.0000000000000000e+00   0.0000000000000000e+00   0.0000000000000000e+00   0.0000000000000000e+00   0.0000000000000000e+00   0.0000000000000000e+00   0.0000000000000000e+00   0.0000000000000000e+00   0.0000000000000000e+00   0.0000000000000000e+00   0.0000000000000000e+00   0.0000000000000000e+00   0.0000000000000000e+00   0.0000000000000000e+00   0.0000000000000000e+00   0.0000000000000000e+00   0.0000000000000000e+00   0.0000000000000000e+00   0.0000000000000000e+00   0.0000000000000000e+00   0.0000000000000000e+00   0.0000000000000000e+00   0.0000000000000000e+00   0.0000000000000000e+00   0.0000000000000000e+00   0.0000000000000000e+00   0.0000000000000000e+00   0.0000000000000000e+00   0.0000000000000000e+00   0.0000000000000000e+00   0.0000000000000000e+00   0.0000000000000000e+00   0.0000000000000000e+00   0.0000000000000000e+00   0.0000000000000000e+00   0.0000000000000000e+00   0.0000000000000000e+00   0.0000000000000000e+00   0.0000000000000000e+00   0.0000000000000000e+00   0.0000000000000000e+00   0.0000000000000000e+00   0.0000000000000000e+00   0.0000000000000000e+00   0.0000000000000000e+00   0.0000000000000000e+00   0.0000000000000000e+00   0.0000000000000000e+00   0.0000000000000000e+00   0.0000000000000000e+00   0.0000000000000000e+00   0.0000000000000000e+00   0.0000000000000000e+00   0.0000000000000000e+00   0.0000000000000000e+00   0.0000000000000000e+00   0.0000000000000000e+00   0.0000000000000000e+00   0.0000000000000000e+00   0.0000000000000000e+00   0.0000000000000000e+00   0.0000000000000000e+00   0.0000000000000000e+00   0.0000000000000000e+00   0.0000000000000000e+00   0.0000000000000000e+00   0.0000000000000000e+00   0.0000000000000000e+00   0.0000000000000000e+00   0.0000000000000000e+00   0.0000000000000000e+00   0.0000000000000000e+00   0.0000000000000000e+00   0.0000000000000000e+00   0.0000000000000000e+00   0.0000000000000000e+00   0.0000000000000000e+00   0.0000000000000000e+00   0.0000000000000000e+00   0.0000000000000000e+00   0.0000000000000000e+00   0.0000000000000000e+00   0.0000000000000000e+00   0.0000000000000000e+00   0.0000000000000000e+00   0.0000000000000000e+00   0.0000000000000000e+00   0.0000000000000000e+00   0.0000000000000000e+00   0.0000000000000000e+00   0.0000000000000000e+00   0.0000000000000000e+00   0.0000000000000000e+00   0.0000000000000000e+00   0.0000000000000000e+00   0.0000000000000000e+00   0.0000000000000000e+00   0.0000000000000000e+00   0.0000000000000000e+00   0.0000000000000000e+00   0.0000000000000000e+00   0.0000000000000000e+00   0.0000000000000000e+00   0.0000000000000000e+00   0.0000000000000000e+00   0.0000000000000000e+00   0.0000000000000000e+00   0.0000000000000000e+00   0.0000000000000000e+00   0.0000000000000000e+00   0.0000000000000000e+00   0.0000000000000000e+00   0.0000000000000000e+00   0.0000000000000000e+00   0.0000000000000000e+00   0.0000000000000000e+00   0.0000000000000000e+00   0.0000000000000000e+00   0.0000000000000000e+00   0.0000000000000000e+00   0.0000000000000000e+00   0.0000000000000000e+00   0.0000000000000000e+00   0.0000000000000000e+00   0.0000000000000000e+00   0.0000000000000000e+00   0.0000000000000000e+00   0.0000000000000000e+00   0.0000000000000000e+00   0.0000000000000000e+00   0.0000000000000000e+00   0.0000000000000000e+00   0.0000000000000000e+00   0.0000000000000000e+00   0.0000000000000000e+00   0.0000000000000000e+00   0.0000000000000000e+00   0.0000000000000000e+00   0.0000000000000000e+00   0.0000000000000000e+00   0.0000000000000000e+00   0.0000000000000000e+00   0.0000000000000000e+00   0.0000000000000000e+00   0.0000000000000000e+00   0.0000000000000000e+00   0.0000000000000000e+00   0.0000000000000000e+00   0.0000000000000000e+00   0.0000000000000000e+00   0.0000000000000000e+00   0.0000000000000000e+00   0.0000000000000000e+00   0.0000000000000000e+00   0.0000000000000000e+00   0.0000000000000000e+00   0.0000000000000000e+00   0.0000000000000000e+00   0.0000000000000000e+00   0.0000000000000000e+00   0.0000000000000000e+00   0.0000000000000000e+00   0.0000000000000000e+00   0.0000000000000000e+00   0.0000000000000000e+00   0.0000000000000000e+00   0.0000000000000000e+00   0.0000000000000000e+00   0.0000000000000000e+00   0.0000000000000000e+00   0.0000000000000000e+00   0.0000000000000000e+00   0.0000000000000000e+00   0.0000000000000000e+00   0.0000000000000000e+00   0.0000000000000000e+00   0.0000000000000000e+00   0.0000000000000000e+00   0.0000000000000000e+00   0.0000000000000000e+00   0.0000000000000000e+00   0.0000000000000000e+00   0.0000000000000000e+00   0.0000000000000000e+00   0.0000000000000000e+00   0.0000000000000000e+00   0.0000000000000000e+00   0.0000000000000000e+00   0.0000000000000000e+00   0.0000000000000000e+00   0.0000000000000000e+00   0.0000000000000000e+00   0.0000000000000000e+00   0.0000000000000000e+00   0.0000000000000000e+00   0.0000000000000000e+00   0.0000000000000000e+00   0.0000000000000000e+00   0.0000000000000000e+00   0.0000000000000000e+00   0.0000000000000000e+00   0.0000000000000000e+00   0.0000000000000000e+00   0.0000000000000000e+00   0.0000000000000000e+00   0.0000000000000000e+00   0.0000000000000000e+00   0.0000000000000000e+00   0.0000000000000000e+00   0.0000000000000000e+00   0.0000000000000000e+00   0.0000000000000000e+00   0.0000000000000000e+00   0.0000000000000000e+00   0.0000000000000000e+00   0.0000000000000000e+00   0.0000000000000000e+00   0.0000000000000000e+00   0.0000000000000000e+00   0.0000000000000000e+00   0.0000000000000000e+00   0.0000000000000000e+00   0.0000000000000000e+00   0.0000000000000000e+00   0.0000000000000000e+00   0.0000000000000000e+00   0.0000000000000000e+00   0.0000000000000000e+00   0.0000000000000000e+00   0.0000000000000000e+00   0.0000000000000000e+00   0.0000000000000000e+00   0.0000000000000000e+00   0.0000000000000000e+00   0.0000000000000000e+00   0.0000000000000000e+00   0.0000000000000000e+00   0.0000000000000000e+00   0.0000000000000000e+00   0.0000000000000000e+00   0.0000000000000000e+00   0.0000000000000000e+00   0.0000000000000000e+00   0.0000000000000000e+00   0.0000000000000000e+00   0.0000000000000000e+00   0.0000000000000000e+00   0.0000000000000000e+00   0.0000000000000000e+00   0.0000000000000000e+00   0.0000000000000000e+00   0.0000000000000000e+00   0.0000000000000000e+00   0.0000000000000000e+00   0.0000000000000000e+00   0.0000000000000000e+00   0.0000000000000000e+00   0.0000000000000000e+00   0.0000000000000000e+00   0.0000000000000000e+00   0.0000000000000000e+00   0.0000000000000000e+00   0.0000000000000000e+00   0.0000000000000000e+00   0.0000000000000000e+00   0.0000000000000000e+00   0.0000000000000000e+00   0.0000000000000000e+00   0.0000000000000000e+00   0.0000000000000000e+00   0.0000000000000000e+00   0.0000000000000000e+00   0.0000000000000000e+00   0.0000000000000000e+00   0.0000000000000000e+00   0.0000000000000000e+00   0.0000000000000000e+00   0.0000000000000000e+00   0.0000000000000000e+00   0.0000000000000000e+00   0.0000000000000000e+00   0.0000000000000000e+00   0.0000000000000000e+00   0.0000000000000000e+00   0.0000000000000000e+00   0.0000000000000000e+00   0.0000000000000000e+00   0.0000000000000000e+00   0.0000000000000000e+00   0.0000000000000000e+00   0.0000000000000000e+00   0.0000000000000000e+00   0.0000000000000000e+00   0.0000000000000000e+00   0.0000000000000000e+00   0.0000000000000000e+00   0.0000000000000000e+00   0.0000000000000000e+00   0.0000000000000000e+00   0.0000000000000000e+00   0.0000000000000000e+00   0.0000000000000000e+00   0.0000000000000000e+00   0.0000000000000000e+00   0.0000000000000000e+00   0.0000000000000000e+00   0.0000000000000000e+00   0.0000000000000000e+00   0.0000000000000000e+00   0.0000000000000000e+00   0.0000000000000000e+00   0.0000000000000000e+00   0.0000000000000000e+00   0.0000000000000000e+00   0.0000000000000000e+00   0.0000000000000000e+00   0.0000000000000000e+00   0.0000000000000000e+00   0.0000000000000000e+00   0.0000000000000000e+00   0.0000000000000000e+00   0.0000000000000000e+00   0.0000000000000000e+00   0.0000000000000000e+00   0.0000000000000000e+00   0.0000000000000000e+00   0.0000000000000000e+00   0.0000000000000000e+00   0.0000000000000000e+00   0.0000000000000000e+00   0.0000000000000000e+00   0.0000000000000000e+00   0.0000000000000000e+00   0.0000000000000000e+00   0.0000000000000000e+00   0.0000000000000000e+00   0.0000000000000000e+00   0.0000000000000000e+00   0.0000000000000000e+00   0.0000000000000000e+00   0.0000000000000000e+00   0.0000000000000000e+00   0.0000000000000000e+00   0.0000000000000000e+00   0.0000000000000000e+00   0.0000000000000000e+00   0.0000000000000000e+00   0.0000000000000000e+00   0.0000000000000000e+00   0.0000000000000000e+00   0.0000000000000000e+00   0.0000000000000000e+00   0.0000000000000000e+00   0.0000000000000000e+00   0.0000000000000000e+00   0.0000000000000000e+00   0.0000000000000000e+00   0.0000000000000000e+00   0.0000000000000000e+00   0.0000000000000000e+00   0.0000000000000000e+00   0.0000000000000000e+00   0.0000000000000000e+00   0.0000000000000000e+00   0.0000000000000000e+00   0.0000000000000000e+00   0.0000000000000000e+00   0.0000000000000000e+00   0.0000000000000000e+00   0.0000000000000000e+00   0.0000000000000000e+00   0.0000000000000000e+00   0.0000000000000000e+00   0.0000000000000000e+00   0.0000000000000000e+00   0.0000000000000000e+00   0.0000000000000000e+00   0.0000000000000000e+00   0.0000000000000000e+00   0.0000000000000000e+00   0.0000000000000000e+00   0.0000000000000000e+00   0.0000000000000000e+00   0.0000000000000000e+00   0.0000000000000000e+00   0.0000000000000000e+00   0.0000000000000000e+00   0.0000000000000000e+00   0.0000000000000000e+00   0.0000000000000000e+00   0.0000000000000000e+00   0.0000000000000000e+00   0.00000000000000